<?xml version="1.0" encoding="UTF-8"?>

<!-- generated on Sun Nov 29 13:01:16 2020 by Eclipse SUMO sumo Version 1.7.0
<configuration xmlns:xsi="http://www.w3.org/2001/XMLSchema-instance" xsi:noNamespaceSchemaLocation="http://sumo.dlr.de/xsd/sumoConfiguration.xsd">

    <input>
        <net-file value="PoundSign/PoundSign.net.xml"/>
        <route-files value="PoundSign/PoundSign.rou.xml"/>
    </input>

    <output>
        <tripinfo-output value="tripinfo.xml"/>
    </output>

    <time>
        <begin value="0"/>
    </time>

    <report>
        <verbose value="true"/>
        <log value="log.txt"/>
        <duration-log.statistics value="true"/>
        <no-step-log value="true"/>
    </report>

</configuration>
-->

<tripinfos xmlns:xsi="http://www.w3.org/2001/XMLSchema-instance" xsi:noNamespaceSchemaLocation="http://sumo.dlr.de/xsd/tripinfo_file.xsd">
    <tripinfo id="test_0" depart="0.00" departLane="gneE65_0" departPos="5.10" departSpeed="0.00" departDelay="0.00" arrival="83.00" arrivalLane="gneE57_0" arrivalPos="192.80" arrivalSpeed="14.48" duration="83.00" routeLength="589.32" waitingTime="10.00" waitingCount="1" stopTime="0.00" timeLoss="40.91" rerouteNo="0" devices="tripinfo_test_0" vType="default" speedFactor="1.06" vaporized=""/>     <tripinfo id="test_1" depart="0.00" departLane="gneE59_0" departPos="5.10" departSpeed="0.00" departDelay="0.00" arrival="90.00" arrivalLane="gneE52_0" arrivalPos="192.80" arrivalSpeed="12.76" duration="90.00" routeLength="589.32" waitingTime="4.00" waitingCount="2" stopTime="0.00" timeLoss="42.70" rerouteNo="0" devices="tripinfo_test_1" vType="default" speedFactor="0.94" vaporized=""/>    <tripinfo id="test_2" depart="8.00" departLane="gneE65_0" departPos="5.10" departSpeed="0.00" departDelay="0.00" arrival="98.00" arrivalLane="gneE57_0" arrivalPos="192.80" arrivalSpeed="13.72" duration="90.00" routeLength="589.32" waitingTime="16.00" waitingCount="1" stopTime="0.00" timeLoss="45.82" rerouteNo="0" devices="tripinfo_test_2" vType="default" speedFactor="1.01" vaporized=""/>    <tripinfo id="test_3" depart="8.00" departLane="gneE59_0" departPos="5.10" departSpeed="0.00" departDelay="0.00" arrival="98.00" arrivalLane="gneE52_0" arrivalPos="192.80" arrivalSpeed="14.93" duration="90.00" routeLength="589.32" waitingTime="5.00" waitingCount="3" stopTime="0.00" timeLoss="48.60" rerouteNo="0" devices="tripinfo_test_3" vType="default" speedFactor="1.08" vaporized=""/>
    <tripinfo id="test_4" depart="16.00" departLane="gneE65_0" departPos="5.10" departSpeed="0.00" departDelay="0.00" arrival="112.00" arrivalLane="gneE57_0" arrivalPos="192.80" arrivalSpeed="14.00" duration="96.00" routeLength="589.32" waitingTime="15.00" waitingCount="2" stopTime="0.00" timeLoss="52.99" rerouteNo="0" devices="tripinfo_test_4" vType="default" speedFactor="1.03" vaporized=""/>     <tripinfo id="test_5" depart="16.00" departLane="gneE59_0" departPos="5.10" departSpeed="0.00" departDelay="0.00" arrival="114.00" arrivalLane="gneE52_0" arrivalPos="192.80" arrivalSpeed="11.17" duration="98.00" routeLength="589.32" waitingTime="10.00" waitingCount="3" stopTime="0.00" timeLoss="44.64" rerouteNo="0" devices="tripinfo_test_5" vType="default" speedFactor="0.83" vaporized=""/     <tripinfo id="test_7" depart="24.00" departLane="gneE59_0" departPos="5.10" departSpeed="0.00" departDelay="0.00" arrival="118.00" arrivalLane="gneE52_0" arrivalPos="192.80" arrivalSpeed="11.98" duration="94.00" routeLength="589.32" waitingTime="10.00" waitingCount="3" stopTime="0.00" timeLoss="44.60" rerouteNo="0" devices="tripinfo_test_7" vType="default" speedFactor="0.89" vaporized=""/     <tripinfo id="test_6" depart="24.00" departLane="gneE65_0" departPos="5.10" departSpeed="0.00" departDelay="0.00" arrival="157.00" arrivalLane="gneE57_0" arrivalPos="192.80" arrivalSpeed="14.52" duration="133.00" routeLength="589.32" waitingTime="47.00" waitingCount="3" stopTime="0.00" timeLoss="90.57" rerouteNo="0" devices="tripinfo_test_6" vType="default" speedFactor="1.05" vaporized=""/>
    <tripinfo id="test_8" depart="32.00" departLane="gneE65_0" departPos="5.10" departSpeed="0.00" departDelay="0.00" arrival="175.00" arrivalLane="gneE57_0" arrivalPos="192.80" arrivalSpeed="12.80" duration="143.00" routeLength="589.32" waitingTime="46.00" waitingCount="3" stopTime="0.00" timeLoss="96.01" rerouteNo="0" devices="tripinfo_test_8" vType="default" speedFactor="0.94" vaporized=""/>
    <tripinfo id="test_9" depart="32.00" departLane="gneE59_0" departPos="5.10" departSpeed="0.00" departDelay="0.00" arrival="179.00" arrivalLane="gneE52_0" arrivalPos="192.80" arrivalSpeed="11.51" duration="147.00" routeLength="589.32" waitingTime="54.00" waitingCount="5" stopTime="0.00" timeLoss="96.03" rerouteNo="0" devices="tripinfo_test_9" vType="default" speedFactor="0.86" vaporized=""/>
    <tripinfo id="test_10" depart="40.00" departLane="gneE65_0" departPos="5.10" departSpeed="0.00" departDelay="0.00" arrival="185.00" arrivalLane="gneE57_0" arrivalPos="192.80" arrivalSpeed="14.83" duration="145.00" routeLength="589.32" waitingTime="40.00" waitingCount="5" stopTime="0.00" timeLoss="104.23" rerouteNo="0" devices="tripinfo_test_10" vType="default" speedFactor="1.09" vaporized=""/>
    <tripinfo id="test_11" depart="40.00" departLane="gneE59_0" departPos="5.10" departSpeed="0.00" departDelay="0.00" arrival="187.00" arrivalLane="gneE52_0" arrivalPos="192.80" arrivalSpeed="14.23" duration="147.00" routeLength="589.32" waitingTime="46.00" waitingCount="5" stopTime="0.00" timeLoss="104.15" rerouteNo="0" devices="tripinfo_test_11" vType="default" speedFactor="1.03" vaporiz    <tr     <tripinfo id="test_13" depart="48.00" departLane="gneE59_0" departPos="5.10" departSpeed="0.00" departDelay="0.00" arrival="195.00" arrivalLane="gneE52_0" arrivalPos="192.80" arrivalSpeed="15.50" duration="147.00" routeLength="589.32" waitingTime="41.00" waitingCount="3" stopTime="0.00" timeLoss="107.60" rerouteNo="0" devices="tripinfo_test_13" vType="default" speedFactor="1.12" vaporized=""/>     <tripinfo id="test_12" depart="48.00" departLane="gneE65_0" departPos="5.10" departSpeed="0.00" departDelay="0.00" arrival="203.00" arrivalLane="gneE57_0" arrivalPos="192.80" arrivalSpeed="14.35" duration="155.00" routeLength="589.32" waitingTime="42.00" waitingCount="6" stopTime="0.00" timeLoss="112.72" rerouteNo="0" devices="tripinfo_test_12" vType="default" speedFactor="1.05" vaporized=""/>
    <tripinfo id="test_15" depart="56.00" departLane="gneE59_0" departPos="5.10" departSpeed="0.00" departDelay="0.00" arrival="204.00" arrivalLane="gneE52_0" arrivalPos="192.80" arrivalSpeed="12.56" duration="148.00" routeLength="589.32" waitingTime="32.00" waitingCount="3" stopTime="0.00" timeLoss="99.81" rerouteNo="0" devices="tripinfo_test_15" vType="default" speedFactor="0.93" vaporized=""/>     <tripinfo id="test_17" depart="64.00" departLane="gneE59_0" departPos="5.10" departSpeed="0.00" departDelay="0.00" arrival="206.00" arrivalLane="gneE52_0" arrivalPos="192.80" arrivalSpeed="12.70" duration="142.00" routeLength="589.32" waitingTime="25.00" waitingCount="4" stopTime="0.00" timeLoss="95.43" rerouteNo="0" devices="tripinfo_test_17" vType="default" speedFactor="0.94" vaporized=""/>
    <tripinfo id="test_19" depart="72.00" departLane="gneE59_0" departPos="5.10" departSpeed="0.00" departDelay="0.00" arrival="208.00" arrivalLane="gneE52_0" arrivalPos="192.80" arrivalSpeed="13.90" duration="136.00" routeLength="589.32" waitingTime="22.00" waitingCount="2" stopTime="0.00" timeLoss="97.57" rerouteNo="0" devices="tripinfo_test_19" vType="default" speedFactor="1.16" vaporized=""/>
    <tripinfo id="test_21" depart="80.00" departLane="gneE59_0" departPos="5.10" departSpeed="0.00" departDelay="0.00" arrival="210.00" arrivalLane="gneE52_0" arrivalPos="192.80" arrivalSpeed="13.89" duration="130.00" routeLength="589.32" waitingTime="15.00" waitingCount="3" stopTime="0.00" timeLoss="85.80" rerouteNo="0" devices="tripinfo_test_21" vType="default" speedFactor="1.01" vaporized=""/>
    <tripinfo id="test_23" depart="88.00" departLane="gneE59_0" departPos="5.10" departSpeed="0.00" departDelay="0.00" arrival="214.00" arrivalLane="gneE52_0" arrivalPos="192.80" arrivalSpeed="12.20" duration="126.00" routeLength="589.32" waitingTime="8.00" waitingCount="3" stopTime="0.00" timeLoss="75.85" rerouteNo="0" devices="tripinfo_test_23" vType="default" speedFactor="0.89" vaporized=""/>
    <tripinfo id="test_25" depart="96.00" departLane="gneE59_0" departPos="5.10" departSpeed="0.00" departDelay="0.00" arrival="217.00" arrivalLane="gneE52_0" arrivalPos="192.80" arrivalSpeed="12.02" duration="121.00" routeLength="589.32" waitingTime="8.00" waitingCount="4" stopTime="0.00" timeLoss="69.40" rerouteNo="0" devices="tripinfo_test_25" vType="default" speedFactor="0.87" vaporized=""/>
    <tripinfo id="test_27" depart="104.00" departLane="gneE59_0" departPos="5.10" departSpeed="0.00" departDelay="0.00" arrival="218.00" arrivalLane="gneE52_0" arrivalPos="192.80" arrivalSpeed="12.87" duration="114.00" routeLength="589.32" waitingTime="3.00" waitingCount="2" stopTime="0.00" timeLoss="67.90" rerouteNo="0" devices="tripinfo_test_27" vType="default" speedFactor="0.95" vaporized=""/>
    <tripinfo id="test_29" depart="112.00" departLane="gneE59_0" departPos="5.10" departSpeed="0.00" departDelay="0.00" arrival="221.00" arrivalLane="gneE52_0" arrivalPos="192.80" arrivalSpeed="12.82" duration="109.00" routeLength="589.32" waitingTime="0.00" waitingCount="0" stopTime="0.00" timeLoss="62.05" rerouteNo="0" devices="tripinfo_test_29" vType="default" speedFactor="0.93" vaporized=""/>
    <tripinfo id="test_31" depart="120.00" departLane="gneE59_0" departPos="5.10" departSpeed="0.00" departDelay="0.00" arrival="223.00" arrivalLane="gneE52_0" arrivalPos="192.80" arrivalSpeed="14.22" duration="103.00" routeLength="589.32" waitingTime="2.00" waitingCount="1" stopTime="0.00" timeLoss="64.72" rerouteNo="0" devices="tripinfo_test_31" vType="default" speedFactor="1.15" vaporized=""/>
      <tripinfo id="test_18" depart="72.00" departLane="gneE65_0" departPos="5.10" departSpeed="0.00" departDelay="0.00" arrival="226.00" arrivalLane="gneE57_0" arrivalPos="192.80" arrivalSpeed="12.70" duration="154.00" routeLength="589.32" waitingTime="38.00" waitingCount="5" stopTime="0.00" timeLoss="106.47" rerouteNo="0" devices="tripinfo_test_18" vType="default" speedFactor="0.94" vaporize    <      <tripinfo id="test_20" depart="80.00" departLane="gneE65_0" departPos="5.10" departSpeed="0.00" departDelay="0.00" arrival="237.00" arrivalLane="gneE57_0" arrivalPos="192.80" arrivalSpeed="14.05" duration="157.00" routeLength="589.32" waitingTime="42.00" waitingCount="6" stopTime="0.00" timeLoss="113.24" rerouteNo="0" devices="tripinfo_test_20" vType="default" speedFactor="1.02" va    <tripinfo id="test_16" depart="64.00" departLane="gneE65_0" departPos="5.10" departSpeed="0.00" departDelay="0.00" arrival="255.00" arrivalLane="gneE57_0" arrivalPos="192.80" arrivalSpeed="12.15" duration="191.00" routeLength="589.32" waitingTime="58.00" waitingCount="11" stopTime="0.00" timeLoss="141.25" rerouteNo="0" devices="tripinfo_test_16" vType="default" speedFactor="0.88" vaporized=""/>
      <tri      <tripinfo id="test_24" depart="96.00" departLane="gneE65_0" departPos="5.10" departSpeed="0.00" departDelay="0.00" arrival="261.00" arrivalLane="gneE57_0" arrivalPos="192.80" arrivalSpeed="11.25" duration="165.00" routeLength="589.32" waitingTime="38.00" waitingCount="9" stopTime="0.00" timeLoss="112.11" rerouteNo="0" devices="tripinfo_test_24" vType="default" speedFactor="0.83" vap       <tr    <tripinfo id="test_33" depart="128.00" departLane="gneE59_0" departPos="5.10" departSpeed="0.00" departDelay="0.00" arrival="272.00" arrivalLane="gneE52_0" arrivalPos="192.80" arrivalSpeed="16.02" duration="144.00" routeLength="589.32" waitingTime="47.00" waitingCount="3" stopTime="0.00" timeLoss="106.00" rerouteNo="0" devices="tripinfo_test_33" vType="default" speedFactor="1.17" vaporized="        <tripinfo id="test_22" depart="88.00" departLane="gneE65_0" departPos="5.10" departSpeed="0.00" departDelay="0.00" arrival="277.00" arrivalLane="gneE57_0" arrivalPos="192.80" arrivalSpeed="13.42" duration="189.00" routeLength="589.32" waitingTime="47.00" waitingCount="9" stopTime="0.00" timeLoss="144.13" rerouteNo="0" devices="tripinfo_test_22" vType="default" speedFactor="0.98"     <tr    <tri    <tripinfo id="test_35" depart="136.00" departLane="gneE59_0" departPos="5.10" departSpeed="0.00" departDelay="0.00" arrival="280.00" arrivalLane="gneE52_0" arrivalPos="192.80" arrivalSpeed="13.80" duration="144.00" routeLength="589.32" waitingTime="44.00" waitingCount="4" stopTime="0.00" timeLoss="100.69" rerouteNo="0" devices="tripinfo_test_35" vType="default" speedFactor="1.02"        <tripinfo id="test_39" depart="152.00" departLane="gneE59_0" departPos="5.10" departSpeed="0.00" departDelay="0.00" arrival="287.00" arrivalLane="gneE52_0" arrivalPos="192.80" arrivalSpeed="12.43" duration="135.00" routeLength="589.32" waitingTime="34.00" waitingCount="2" stopTime="0.00" timeLoss="86.23" rerouteNo="0" devices="tripinfo_test_39" vType="default" speedFactor="0.90" vaporized=""/>
       <tripinfo id="test_22" depart="88.00" departLane="gneE65_0" departPos="5.10" departSpeed="0.00" departDelay="0.00" arrival="293.00" arrivalLane="gneE57_0" arrivalPos="192.80" arrivalSpeed="13.35" duration="205.00" routeLength="589.32" waitingTime="57.00" waitingCount="12" stopTime="0.00" timeLoss="159.47" rerouteNo="0" devices="tripinfo_test_22" vType="default" speedFactor="0.98" vaporized=""       <trip    <tripinfo id="test_39" depart="152.00" departLane="gneE59_0" departPos="5.10" departSpeed="0.00" departDelay="0.00" arrival="296.00" arrivalLane="gneE52_0" arrivalPos="192.80" arrivalSpeed="12.33" duration="144.00" routeLength="589.32" waitingTime="33.00" waitingCount="5" stopTime="0.00" timeLoss="94.94" rerouteNo="0" devices="tripinfo_test_39" vType="default" speedFactor="0.90" vap       <tripinfo id="test_43" depart="168.00" departLane="gneE59_0" departPos="5.10" departSpeed="0.00" departDelay="0.00" arrival="299.00" arrivalLane="gneE52_0" arrivalPos="192.80" arrivalSpeed="14.03" duration="131.00" routeLength="589.32" waitingTime="13.00" waitingCount="2" stopTime="0.00" timeLoss="87.99" rerouteNo="0" devices="tripinfo_test_43" vType="default" speedFactor="1.04" vaporized=""       <tripinfo id="test_45" depart="176.00" departLane="gneE59_0" departPos="5.10" departSpeed="0.00" departDelay="0.00" arrival="300.00" arrivalLane="gneE52_0" arrivalPos="192.80" arrivalSpeed="14.67" duration="124.00" routeLength="589.32" waitingTime="6.00" waitingCount="3" stopTime="0.00" timeLoss="83.51" rerouteNo="0" devices="tripinfo_test_45" vType="default" speedFactor="1.09" vaporized=""       <tripinfo id="test_47" depart="184.00" departLane="gneE59_0" departPos="5.10" departSpeed="0.00" departDelay="0.00" arrival="302.00" arrivalLane="gneE52_0" arrivalPos="192.80" arrivalSpeed="12.12" duration="118.00" routeLength="589.32" waitingTime="2.00" waitingCount="2" stopTime="0.00" timeLoss="69.38" rerouteNo="0" devices="tripinfo_test_47" vType="default" speedFactor="0.90" vaporized=""    <tripinfo id="test_24" depart="96.00" departLane="gneE65_0" departPos="5.10" departSpeed="0.00" departDelay="0.00" arrival="305.00" arrivalLane="gneE57_0" arrivalPos="192.80" arrivalSpeed="11.39" duration="209.00" routeLength="589.32" waitingTime="61.00" waitingCount="11" stopTime="0.00" timeLoss="155.85" rerouteNo="0" devices="tripinfo_test_24" vType="default" speedFactor="0.83" vaporized=""/>
    <tripinfo    <tripinfo id="test_49" depart="192.00" departLane="gneE59_0" departPos="5.10" departSpeed="0.00" departDelay="0.00" arrival="307.00" arrivalLane="gneE52_0" arrivalPos="192.80" arrivalSpeed="11.62" duration="115.00" routeLength="589.32" waitingTime="7.00" waitingCount="2" stopTime="0.00" timeLoss="63.53" rerouteNo="0" devices="tripinfo_test_49" vType="default" speedFactor="0.85" vaporized=""/>
    <tripinfo id="test_26" depart="104.00" departLane="gneE65_0" departPos="5.10" departSpeed="0.00" departDelay="0.00" arrival="309.00" arrivalLane="gneE57_0" arrivalPos="192.80" arrivalSpeed="12.55" duration="205.00" routeLength="589.32" waitingTime="54.00" waitingCount="9" stopTime="0.00" timeLoss="156.53" rerouteNo="0" devices="tripinfo_test_26" vType="default" speedFactor="0.92" vaporized=""/>
    <tr    <tripinfo id="test_32" depart="128.00" departLane="gneE65_0" departPos="5.10" departSpeed="0.00" departDelay="0.00" arrival="317.00" arrivalLane="gneE57_0" arrivalPos="192.80" arrivalSpeed="13.83" duration="189.00" routeLength="589.32" waitingTime="51.00" waitingCount="6" stopTime="0.00" timeLoss="144.61" rerouteNo="0" devices="tripinfo_test_32" vType="default" speedFactor="1.01" vaporized=""/>
    <tripinfo id="test_34" depart="136.00" departLane="gneE65_0" departPos="5.10" departSpeed="0.00" departDelay="0.00" arrival="333.00" arrivalLane="gneE57_0" arrivalPos="192.80" arrivalSpeed="13.81" duration="197.00" routeLength="589.32" waitingTime="48.00" waitingCount="7" stopTime="0.00" timeLoss="152.31" rerouteNo="0" devices="tripinfo_test_34" vType="default" speedFactor="0.99" vaporized=""/>
    <tripinfo id="test_36" depart="144.00" departLane="gneE65_0" departPos="5.10" departSpeed="0.00" departDelay="0.00" arrival="359.00" arrivalLane="gneE57_0" arrivalPos="192.80" arrivalSpeed="13.31" duration="215.00" routeLength="589.32" waitingTime="55.00" waitingCount="7" stopTime="0.00" timeLoss="169.73" rerouteNo="0" devices="tripinfo_test_36" vType="default" speedFactor="0.97" vaporized=""/>
    <tripinfo id="test_47" depart="184.00" departLane="gneE59_0" departPos="5.10" departSpeed="0.00" departDelay="0.00" arrival="362.00" arrivalLane="gneE52_0" arrivalPos="192.80" arrivalSpeed="12.35" duration="178.00" routeLength="589.32" waitingTime="54.00" waitingCount="7" stopTime="0.00" timeLoss="128.53" rerouteNo="0" devices="tripinfo_test_47" vType="default" speedFactor="0.90" vaporized=""/>
    <tripinfo id="test_49" depart="192.00" departLane="gneE59_0" departPos="5.10" departSpeed="0.00" departDelay="0.00" arrival="369.00" arrivalLane="gneE52_0" arrivalPos="192.80" arrivalSpeed="11.48" duration="177.00" routeLength="589.32" waitingTime="52.00" waitingCount="7" stopTime="0.00" timeLoss="125.31" rerouteNo="0" devices="tripinfo_test_49" vType="default" speedFactor="0.85" vaporized=""/>
    <tripinfo id="test_51" depart="200.00" departLane="gneE59_0" departPos="5.10" departSpeed="0.00" departDelay="0.00" arrival="376.00" arrivalLane="gneE52_0" arrivalPos="192.80" arrivalSpeed="15.29" duration="176.00" routeLength="589.32" waitingTime="39.00" waitingCount="6" stopTime="0.00" timeLoss="138.35" rerouteNo="0" devices="tripinfo_test_51" vType="default" speedFactor="1.17" vaporized=""/>
    <tripinfo id="test_53" depart="208.00" departLane="gneE59_0" departPos="5.10" departSpeed="0.00" departDelay="0.00" arrival="383.00" arrivalLane="gneE52_0" arrivalPos="192.80" arrivalSpeed="15.03" duration="175.00" routeLength="589.32" waitingTime="37.00" waitingCount="6" stopTime="0.00" timeLoss="135.25" rerouteNo="0" devices="tripinfo_test_53" vType="default" speedFactor="1.10" vaporized=""/>
    <tripinfo id="test_55" depart="216.00" departLane="gneE59_0" departPos="5.10" departSpeed="0.00" departDelay="0.00" arrival="386.00" arrivalLane="gneE52_0" arrivalPos="192.80" arrivalSpeed="13.66" duration="170.00" routeLength="589.32" waitingTime="33.00" waitingCount="4" stopTime="0.00" timeLoss="125.36" rerouteNo="0" devices="tripinfo_test_55" vType="default" speedFactor="1.00" vaporized=""/>
    <tripinfo id="test_57" depart="224.00" departLane="gneE59_0" departPos="5.10" departSpeed="0.00" departDelay="0.00" arrival="388.00" arrivalLane="gneE52_0" arrivalPos="192.80" arrivalSpeed="15.55" duration="164.00" routeLength="589.32" waitingTime="25.00" waitingCount="4" stopTime="0.00" timeLoss="124.80" rerouteNo="0" devices="tripinfo_test_57" vType="default" speedFactor="1.14" vaporized=""/>
    <tripinfo id="test_59" depart="232.00" departLane="gneE59_0" departPos="5.10" departSpeed="0.00" departDelay="0.00" arrival="390.00" arrivalLane="gneE52_0" arrivalPos="192.80" arrivalSpeed="13.23" duration="158.00" routeLength="589.32" waitingTime="17.00" waitingCount="4" stopTime="0.00" timeLoss="112.84" rerouteNo="0" devices="tripinfo_test_59" vType="default" speedFactor="0.97" vaporized=""/>
    <tripinfo id="test_61" depart="240.00" departLane="gneE59_0" departPos="5.10" departSpeed="0.00" departDelay="0.00" arrival="392.00" arrivalLane="gneE52_0" arrivalPos="192.80" arrivalSpeed="15.10" duration="152.00" routeLength="589.32" waitingTime="14.00" waitingCount="3" stopTime="0.00" timeLoss="111.74" rerouteNo="0" devices="tripinfo_test_61" vType="default" speedFactor="1.12" vaporized=""/>
    <tripinfo id="test_63" depart="248.00" departLane="gneE59_0" departPos="5.10" departSpeed="0.00" departDelay="0.00" arrival="394.00" arrivalLane="gneE52_0" arrivalPos="192.80" arrivalSpeed="13.51" duration="146.00" routeLength="589.32" waitingTime="7.00" waitingCount="4" stopTime="0.00" timeLoss="101.83" rerouteNo="0" devices="tripinfo_test_63" vType="default" speedFactor="0.99" vaporized=""/>
    <tripinfo id="test_38" depart="152.00" departLane="gneE65_0" departPos="5.10" departSpeed="0.00" departDelay="0.00" arrival="395.00" arrivalLane="gneE57_0" arrivalPos="192.80" arrivalSpeed="14.94" duration="243.00" routeLength="589.32" waitingTime="75.00" waitingCount="8" stopTime="0.00" timeLoss="203.02" rerouteNo="0" devices="tripinfo_test_38" vType="default" speedFactor="1.10" vaporized=""/>
    <tripinfo id="test_40" depart="160.00" departLane="gneE65_0" departPos="5.10" departSpeed="0.00" departDelay="0.00" arrival="398.00" arrivalLane="gneE57_0" arrivalPos="192.80" arrivalSpeed="13.96" duration="238.00" routeLength="589.32" waitingTime="67.00" waitingCount="9" stopTime="0.00" timeLoss="195.16" rerouteNo="0" devices="tripinfo_test_40" vType="default" speedFactor="1.03" vaporized=""/>
    <tripinfo id="test_65" depart="256.00" departLane="gneE59_0" departPos="5.10" departSpeed="0.00" departDelay="0.00" arrival="399.00" arrivalLane="gneE52_0" arrivalPos="192.80" arrivalSpeed="12.05" duration="143.00" routeLength="589.32" waitingTime="5.00" waitingCount="3" stopTime="0.00" timeLoss="92.13" rerouteNo="0" devices="tripinfo_test_65" vType="default" speedFactor="0.88" vaporized=""/>
    <tripinfo id="test_67" depart="264.00" departLane="gneE59_0" departPos="5.10" departSpeed="0.00" departDelay="0.00" arrival="401.00" arrivalLane="gneE52_0" arrivalPos="192.80" arrivalSpeed="12.57" duration="137.00" routeLength="589.32" waitingTime="4.00" waitingCount="3" stopTime="0.00" timeLoss="88.60" rerouteNo="0" devices="tripinfo_test_67" vType="default" speedFactor="0.91" vaporized=""/>
    <tripinfo id="test_69" depart="272.00" departLane="gneE59_0" departPos="5.10" departSpeed="0.00" departDelay="0.00" arrival="402.00" arrivalLane="gneE52_0" arrivalPos="192.80" arrivalSpeed="13.36" duration="130.00" routeLength="589.32" waitingTime="2.00" waitingCount="1" stopTime="0.00" timeLoss="86.53" rerouteNo="0" devices="tripinfo_test_69" vType="default" speedFac    <tripinfo id="test_40"    <tripinfo id="test_71" depart="280.00" departLane="gneE59_0" departPos="5.10" departSpeed="0.00" departDelay="0.00" arrival="405.00" arrivalLane="gneE52_0" arrivalPos="192.80" arrivalSpeed="13.13" duration="125.00" routeLength="589.32" waitingTime="4.00" waitingCount="3" stopTime="0.00" timeLoss="78.58" rerouteNo="0" devices="tripinfo_test_71" vType="default" speedFactor    <tripinfo id="test_42" depart="168.00" departLane="gneE65_0" departPos="5.10" departSpeed="0.00" departDelay="0.00" arrival="427.00" arrivalLane="gneE57_0" arrivalPos="192.80" arrivalSpeed="14.80" duration="259.00" routeLength="589.32" waitingTime="83.00" waitingCount="13" stopTime="0.00" timeLoss="218.20" rerouteNo="0" devices="tripinfo_test_42" vType="default" speedFactor="1.09" vaporized=""/>
    <tripinfo id="test_44" depart="176.00" departLane="gneE65_0" departPos="5.10" departSpeed="0.00" departDelay="0.00" arrival="432.00" arrivalLane="gneE57_0" arrivalPos="192.80" arrivalSpeed="14.38" duration="256.00" routeLength="589.32" waitingTime="83.00" waitingCount="14" stopTime="0.00" timeLoss="213.79" rerouteNo="0" devices="tripinfo_test_44" vType="default" speedFactor="1.04" vaporized=""/>
    <tripinfo id="test_46" depart="184.00" departLane="gneE65_0" departPos="5.10" departSpeed="0.00" departDelay="0.00" arrival="437.00" arrivalLane="gneE57_0" arrivalPos="192.80" arrivalSpeed="13.70" duration="253.00" routeLength="589.32" waitingTime="83.00" waitingCount="12" stopTime="0.00" timeLoss="209.20" rerouteNo="0" devices="tripinfo_test_46" vType="default" speedFactor="1.00" vaporized=""/>
    <tripinfo id="test_    <tripinfo id="test_73" depart="288.00" departLane="gneE59_0" departPos="5.10" departSpeed="0.00" departDelay="0.00" arrival="448.00" arrivalLane="gneE52_0" arrivalPos="192.80" arrivalSpeed="14.27" duration="160.00" routeLength="589.32" waitingTime="45.00" waitingCount="3" stopTime="0.00" timeLoss="118.21" rerouteNo="0" devices="tripinfo_test_73" vType="default" speedFactor=        <tripinfo id="    <tripinfo id="test_48" depart="192.00" departLane="gneE65_0" departPos="5.10" departSpeed="0.00" departDelay="0.00" arrival="451.00" arrivalLane="gneE57_0" arrivalPos="192.80" arrivalSpeed="11.91" duration="259.00" routeLength="589.32" waitingTime="68.00" waitingCount="15" stopTime="0.00" timeLoss="208.84" rerouteNo="0" devices="tripinfo_test_48" vType="default" speedFactor        <tripinfo id="test_77" depart="304.00" departLane="gneE59_0" departPos="5.10" departSpeed="0.00" departDelay="0.00" arrival="458.00" arrivalLane="gneE52_0" arrivalPos="192.80" arrivalSpeed="13.54" duration="154.00" routeLength="589.32" waitingTime="37.00" waitingCount="4" stopTime="0.00" timeLoss="109.17" rerouteNo="0" devices="tripinfo_test_77" vType="default" speedFactor="0.98" vaporized="        <tripinfo id="test_48" depart="192.00" departLane="gneE65_0" departPos="5.10" departSpeed="0.00" departDelay="0.00" arrival="467.00" arrivalLane="gneE57_0" arrivalPos="192.80" arrivalSpeed="12.16" duration="275.00" routeLength="589.32" waitingTime="99.00" waitingCount="15" stopTime="0.00" timeLoss="224.51" rerouteNo="0" devices="tripinfo_test_48" vType="default" speedFactor="0.88" vaporized=""/>
    <tripinfo id="    <tripinfo id="test_79" depart="312.00" departLane="gneE59_0" departPos="5.10" departSpeed="0.00" departDelay="0.00" arrival="470.00" arrivalLane="gneE52_0" arrivalPos="192.80" arrivalSpeed="15.05" duration="158.00" routeLength="589.32" waitingTime="42.00" waitingCount="3" stopTime="0.00" timeLoss="117.36" rerouteNo="0" devices="tripinfo_test_79" vType="default" speedFactor="1.0    <tripinfo id="test_81" depart="320.00" departLane="gneE59_0" departPos="5.10" departSpeed="0.00" departDelay="0.00" arrival="474.00" arrivalLane="gneE52_0" arrivalPos="192.80" arrivalSpeed="13.85" duration="154.00" routeLength="589.32" waitingTime="28.00" waitingCount="5" stopTime="0.00" timeLoss="109.40" rerouteNo="0" devices="tripinfo_test_81" vType="default" speedFactor="1.00" vaporized=""/>
    <tripinfo id="test_83" depart="328.00" departLane="gneE59_0" departPos="5.10" departSpeed="0.00" departDelay="0.00" arrival="476.00" arrivalLane="gneE52_0" arrivalPos="192.80" arrivalSpeed="13.20" duration="148.00" routeLength="589.32" waitingTime="22.00" waitingCount="5" stopTime="0.00" timeLoss="102.53" rerouteNo="0" devices="tripinfo_test_83" vType="default" speedFactor="0.97" vaporized=""/>
    <tripinfo id="test_85" depart="336.00" departLane="gneE59_0" departPos="5.10" departSpeed="0.00" departDelay="0.00" arrival="479.00" arrivalLane="gneE52_0" arrivalPos="192.80" arrivalSpeed="13.49" duration="143.00" routeLength="589.32" waitingTime="16.00" waitingCount="3" stopTime="0.00" timeLoss="97.57" rerouteNo="0" devices="tripinfo_test_85" vType="default" speedFactor="0.98" vaporized=""/>
    <tripinfo id="test_87" depart="344.00" departLane="gneE59_0" departPos="5.10" departSpeed="0.00" departDelay="0.00" arrival="481.00" arrivalLane="gneE52_0" arrivalPos="192.80" arrivalSpeed="14.22" duration="137.00" routeLength="589.32" waitingTime="18.00" waitingCount="4" stopTime="0.00" timeLoss="94.28" rerouteNo="0" devices="tripinfo_test_87" vType="default" speedFactor="1.04" vaporized=""/>
    <tripinfo id="test_89" depart="352.00" departLane="gneE59_0" departPos="5.10" departSpeed="0.00" departDelay="0.00" arrival="483.00" arrivalLane="gneE52_0" arrivalPos="192.80" arrivalSpeed="13.80" duration="131.00" routeLength="589.32" waitingTime="16.00" waitingCount="3" stopTime="0.00" timeLoss="87.55" rerouteNo="0" devices="tripinfo_test_89" vType="default" speedFactor="1.02" vaporized=""/>
    <tripinfo id="test_50" depart="200.00" departLane="gneE65_0" departPos="5.10" departSpeed="0.00" departDelay="0.00" arrival="487.00" arrivalLane="gneE57_0" arrivalPos="192.80" arrivalSpeed="11.68" duration="287.00" routeLength="589.32" waitingTime="125.00" waitingCount="14" stopTime="0.00" timeLoss="235.04" rerouteNo="0" devices="tripinfo_test_50" vType="default" speedFactor="0.85" vaporized=""/>
    <tripinfo id="test_91" depart="360.00" departLane="gneE59_0" departPos="5.10" departSpeed="0.00" departDelay="0.00" arrival="487.00" arrivalLane="gneE52_0" arrivalPos="192.80" arrivalSpeed="12.14" duration="127.00" routeLength="589.32" waitingTime="7.00" waitingCount="2" stopTime="0.00" timeLoss="76.70" rerouteNo="0" devices="tripinfo_test_91" vType="default" speedFactor="0.89" vaporized=""/>